 Gaussian 03, Revision B.01,
 Gaussian 03:  x86-Linux-G03RevB.01 3-Mar-2003

 ----------------------------------------------------------------------
 #p CIS/6-311++g** opt(tight,maxcycle=100,maxstep=1) freq(hpmodes,intmo
 des)
 ----------------------------------------------------------------------

 ----------
 Etilene S1
 ----------
 Symbolic Z-matrix:
 Charge =  0 Multiplicity = 1

 SCF Done:  E(RHF) =  -77.8924118830     A.U. after   11 cycles
 SCF Done:  E(RHF) =  -77.8924480200     A.U. after    5 cycles
 SCF Done:  E(RHF) =  -77.8924149718     A.U. after    5 cycles
 SCF Done:  E(RHF) =  -77.8924473393     A.U. after    5 cycles
 Optimization completed on the basis of negligible forces.
    -- Stationary point found.
 Normal termination of Gaussian 03 at Fri Feb 24 12:09:46 2006.

 ----------------------------------------------------------------------
 #P Geom=AllCheck Guess=Read SCRF=Check GenChk RCIS(FC,Read)/6-311++G(d
 ,p) Freq
 ----------------------------------------------------------------------

 Etilene S1
 ----------
 Redundant internal coordinates taken from checkpoint file:
 et_cas_s1.chk
 Charge =  0 Multiplicity = 1

                         Standard orientation:
 ---------------------------------------------------------------------
 Center     Atomic     Atomic              Coordinates (Angstroms)
 Number     Number      Type              X           Y           Z
 ---------------------------------------------------------------------
    1          6             0        0.000000    0.000000   -0.686550
    2          6             0        0.000000    0.000000    0.686550
    3          1             0       -0.634112    0.651073    1.289076
    4          1             0        0.634112   -0.651073    1.289076
    5          1             0        0.634112    0.651073   -1.289076
    6          1             0       -0.634112   -0.651073   -1.289076
 ---------------------------------------------------------------------

 SCF Done:  E(RHF) =  -77.8924473393     A.U. after    1 cycles

 Excitation energies and oscillator strengths:

 Excited State   1:   Singlet-B1     1.1528 eV 1075.55 nm  f=0.0277
       8 ->  9         0.67544
       8 -> 17        -0.14971
 This state for optimization and/or second-order correction.
 Total Energy, E(CIS) =  -77.8500843902
 Copying the excited state density for this state as the 1-particle RhoCI density.

 Excited State   2:   Singlet-B3     4.1512 eV  298.67 nm  f=0.0252
       8 -> 10         0.66838
       8 -> 18        -0.19635

 Excited State   3:   Singlet-B2     4.9069 eV  252.67 nm  f=0.0366
       8 -> 11         0.67885
       8 -> 22         0.16444
 The selected state is a singlet
 Cannot handle 2e integral symmetry, ISym2E=1.
 CISAX:  IP=  1 NPass=   1 NMax=   1.
 CISAX will form   1 AO SS matrices at one time.
 NMat=  1 NSing=  1.

 The electronic state is 1-A.
 Alpha  occ. eigenvalues --  -11.25474 -11.25345  -1.03115  -0.80825  -0.60259
 Alpha  occ. eigenvalues --   -0.59893  -0.58372  -0.26422
 Alpha virt. eigenvalues --    0.02642   0.04637   0.06425   0.06925   0.07013
 Alpha virt. eigenvalues --    0.14438   0.15134   0.15174   0.16701   0.20513
 Alpha virt. eigenvalues --    0.20625   0.21250   0.21304   0.26895   0.31495

 Mulliken atomic charges:
              1
     1  C   -0.283537
     2  C   -0.283537
     3  H    0.141768
     4  H    0.141768
     5  H    0.141768
     6  H    0.141768
 Sum of Mulliken charges=   0.00000

 Dipole moment (field-independent basis, Debye):
    X=     0.0000    Y=     0.0000    Z=     0.0000  Tot=     0.0000
 Quadrupole moment (field-independent basis, Debye-Ang):
   XX=   -14.4263   YY=   -15.4341   ZZ=   -13.0640
   XY=     0.0000   XZ=     0.0000   YZ=     0.0000

  Exact polarizability:  26.766   0.000  27.028   0.000   0.000 100.868
 Approx polarizability:  21.296   0.000  17.754   0.000   0.000  39.202

                     1                      2                      3
                    B2                     B3                      A
 Frequencies --   732.9175               744.6966               945.6979
 Red. masses --     1.1078                 1.1064                 1.0081
 Frc consts  --     0.3506                 0.3615                 0.5312
 IR Inten    --   139.6095               124.8621                 0.0000

                     4                      5                      6
                    B3                     B2                      A
 Frequencies --  1003.5184              1009.9632              1356.0408
 Red. masses --     1.5303                 1.5213                 1.8959
 Frc consts  --     0.9080                 0.9143                 2.0541
 IR Inten    --    15.3817                15.1279                 0.0000

                     7                      8                      9
                    B1                      A                     B1
 Frequencies --  1384.7484              1529.4026              3092.9281
 Red. masses --     1.1151                 1.6846                 1.0449
 Frc consts  --     1.2599                 2.3216                 5.8894
 IR Inten    --   596.5975                 0.0000               233.5485

                    10                     11                     12
                     A                     B3                     B2
 Frequencies --  3133.3251              3150.9784              3151.5430
 Red. masses --     1.0559                 1.1097                 1.1101
 Frc consts  --     6.1081                 6.4916                 6.4964
 IR Inten    --     0.0000                 4.6333                 1.1419

 - Thermochemistry -
 -------------------
 Temperature   298.150 Kelvin.  Pressure   1.00000 Atm.
 Atom  1 has atomic number  6 and mass  12.00000

 Molecular mass:    28.03130 amu.
 Principal axes and moments of inertia in atomic units:
                           1         2         3
     EIGENVALUES --    11.89105  70.10820  70.42200
           X            0.00000   0.00000   1.00000
           Y            0.00000   1.00000   0.00000
           Z            1.00000   0.00000   0.00000
 This molecule is an asymmetric top.
 Rotational symmetry number  4.
 Rotational temperatures (Kelvin)      7.28395     1.23543     1.22993
 Rotational constants (GHZ):         151.77308    25.74223    25.62752
 Zero-point vibrational energy     127018.1 (Joules/Mol)
                                   30.35804 (Kcal/Mol)
 Vibrational temperatures:   1054.50  1071.45  1360.65  1443.84  1453.11
          (Kelvin)           1951.04  1992.34  2200.47  4450.03  4508.15
                             4533.55  4534.36

 Zero-point correction=                           0.048379 (Hartree/Particle)
 Thermal correction to Energy=                    0.051546
 Thermal correction to Enthalpy=                  0.052490
 Thermal correction to Gibbs Free Energy=         0.027421
 Sum of electronic and zero-point Energies=            -77.801706
 Sum of electronic and thermal Energies=               -77.798539
 Sum of electronic and thermal Enthalpies=             -77.797595
 Sum of electronic and thermal Free Energies=          -77.822663

                     E (Thermal)             CV                S
                      KCal/Mol        Cal/Mol-Kelvin    Cal/Mol-Kelvin
 Total                   32.345              8.958             52.761
 Electronic               0.000              0.000              0.000
 Translational            0.889              2.981             35.927
 Rotational               0.889              2.981             15.958
 Vibrational             30.568              2.996              0.876

 Optimization completed.
    -- Stationary point found.
 Normal termination of Gaussian 03 at Fri Feb 24 12:10:28 2006.
