 Gaussian 03, Revision B.01,

 ----------------------------------------
 #p HF/6-311++g** opt(Tight,maxcycle=100)
 ----------------------------------------

 ----------
 Etilene S0
 ----------
 Symbolic Z-matrix:
 Charge =  0 Multiplicity = 1

 SCF Done:  E(RHF) =  -78.0547742319     A.U. after    9 cycles
 SCF Done:  E(RHF) =  -78.0560517058     A.U. after    8 cycles
 SCF Done:  E(RHF) =  -78.0561070995     A.U. after    7 cycles
 SCF Done:  E(RHF) =  -78.0561081490     A.U. after    7 cycles
 SCF Done:  E(RHF) =  -78.0561081638     A.U. after    5 cycles
 Optimization completed.
    -- Stationary point found.
 Normal termination of Gaussian 03 at Wed Mar 22 13:02:54 2006.
 Gaussian 03:  x86-Linux-G03RevB.01 3-Mar-2003

 ----------------------------------------------------------------------
 #p MP2/6-311++g** geom=check guess=read opt(Tight,maxcycle=100) freq(h
 pmodes)
 ----------------------------------------------------------------------

 Etilene S0
 ----------
 Redundant internal coordinates taken from checkpoint file:
 et_cas.chk
 Charge =  0 Multiplicity = 1

 SCF Done:  E(RHF) =  -78.0561081638     A.U. after    1 cycles
 E2 =    -0.2897208460D+00 EUMP2 =    -0.78345829009826D+02
 SCF Done:  E(RHF) =  -78.0552972615     A.U. after    8 cycles
 E2 =    -0.2912201785D+00 EUMP2 =    -0.78346517440039D+02
 SCF Done:  E(RHF) =  -78.0553634349     A.U. after    6 cycles
 E2 =    -0.2911632176D+00 EUMP2 =    -0.78346526652425D+02
 SCF Done:  E(RHF) =  -78.0553604684     A.U. after    6 cycles
 E2 =    -0.2911670140D+00 EUMP2 =    -0.78346527482370D+02
 SCF Done:  E(RHF) =  -78.0553574589     A.U. after    5 cycles
 E2 =    -0.2911700273D+00 EUMP2 =    -0.78346527486179D+02
 Optimization completed.
    -- Stationary point found.
 Normal termination of Gaussian 03 at Wed Mar 22 13:03:47 2006.

 ----------------------------------------------------------------------
 #P Geom=AllCheck Guess=Read SCRF=Check GenChk RMP2(FC)/6-311++G(d,p) F
 req
 ----------------------------------------------------------------------

 Etilene S0
 ----------
 Redundant internal coordinates taken from checkpoint file:
 et_cas.chk
 Charge =  0 Multiplicity = 1

                         Standard orientation:
 ---------------------------------------------------------------------
 Center     Atomic     Atomic              Coordinates (Angstroms)
 Number     Number      Type              X           Y           Z
 ---------------------------------------------------------------------
    1          6             0        0.000000    0.000000    0.669574
    2          6             0        0.000000    0.000000   -0.669574
    3          1             0        0.000000    0.926412   -1.235084
    4          1             0        0.000000   -0.926412   -1.235084
    5          1             0        0.000000   -0.926412    1.235084
    6          1             0        0.000000    0.926412    1.235084
 ---------------------------------------------------------------------

 SCF Done:  E(RHF) =  -78.0553574589     A.U. after    1 cycles
 E2 =    -0.2911700270D+00 EUMP2 =    -0.78346527485814D+02

 The electronic state is 1-AG.
 Alpha  occ. eigenvalues --  -11.23526 -11.23360  -1.03358  -0.79339  -0.64374
 Alpha  occ. eigenvalues --   -0.58761  -0.50880  -0.37557
 Alpha virt. eigenvalues --    0.04929   0.06193   0.06377   0.08194   0.10549
 Alpha virt. eigenvalues --    0.12971   0.14066   0.17584   0.18504   0.20611
 Alpha virt. eigenvalues --    0.22230   0.22499   0.23171   0.26349   0.28816

 Mulliken atomic charges:
              1
     1  C   -0.225864
     2  C   -0.225864
     3  H    0.112932
     4  H    0.112932
     5  H    0.112932
     6  H    0.112932
 Sum of Mulliken charges=   0.00000

 Dipole moment (field-independent basis, Debye):
    X=     0.0000    Y=     0.0000    Z=     0.0000  Tot=     0.0000
 Quadrupole moment (field-independent basis, Debye-Ang):
   XX=   -16.2243   YY=   -12.3827   ZZ=   -12.2268
   XY=     0.0000   XZ=     0.0000   YZ=     0.0000

  Exact polarizability:  18.392   0.000  21.429   0.000   0.000  33.247
 Approx polarizability:  16.699   0.000  17.211   0.000   0.000  29.655

                     1                      2                      3
                    B2G                    B2U                    B3U
 Frequencies --   756.0458               829.4602               956.7217
 Red. masses --     1.5113                 1.0419                 1.1607
 Frc consts  --     0.5090                 0.4223                 0.6260
 IR Inten    --     0.0000                 0.4377               108.2952

                     4                      5                      6
                    AU                     B3G                    AG
 Frequencies --  1057.8750              1237.5448              1382.1379
 Red. masses --     1.0078                 1.5169                 1.2841
 Frc consts  --     0.6645                 1.3688                 1.4453
 IR Inten    --     0.0000                 0.0000                 0.0000

                     7                      8                      9
                    B1U                    AG                     B1U
 Frequencies --  1481.5643              1674.8939              3175.1560
 Red. masses --     1.1129                 2.7959                 1.0469
 Frc consts  --     1.4393                 4.6212                 6.2184
 IR Inten    --     7.9466                 0.0000                10.2357

                    10                     11                     12
                    AG                     B3G                    B2U
 Frequencies --  3192.7873              3264.8955              3291.5734
 Red. masses --     1.0737                 1.1155                 1.1186
 Frc consts  --     6.4485                 7.0057                 7.1405
 IR Inten    --     0.0000                 0.0000                18.6794

 - Thermochemistry -
 -------------------
 Temperature   298.150 Kelvin.  Pressure   1.00000 Atm.
 Atom  1 has atomic number  6 and mass  12.00000

 Molecular mass:    28.03130 amu.
 Principal axes and moments of inertia in atomic units:
                           1         2         3
     EIGENVALUES --    12.35525  60.38453  72.73978
           X            0.00000   0.00000   1.00000
           Y            0.00000   1.00000   0.00000
           Z            1.00000   0.00000   0.00000
 This molecule is an asymmetric top.
 Rotational symmetry number  4.
 Rotational temperatures (Kelvin)      7.01028     1.43437     1.19074
 Rotational constants (GHZ):         146.07080    29.88748    24.81093
 Zero-point vibrational energy     133387.5 (Joules/Mol)
                                   31.88039 (Kcal/Mol)
 Vibrational temperatures:   1087.78  1193.41  1376.51  1522.04  1780.55
          (Kelvin)           1988.59  2131.64  2409.80  4568.34  4593.70
                             4697.45  4735.83

 Zero-point correction=                           0.050805 (Hartree/Particle)
 Thermal correction to Energy=                    0.053903
 Thermal correction to Enthalpy=                  0.054847
 Thermal correction to Gibbs Free Energy=         0.029904
 Sum of electronic and zero-point Energies=            -78.295723
 Sum of electronic and thermal Energies=               -78.292625
 Sum of electronic and thermal Enthalpies=             -78.291681
 Sum of electronic and thermal Free Energies=          -78.316623

                     E (Thermal)             CV                S
                      KCal/Mol        Cal/Mol-Kelvin    Cal/Mol-Kelvin
 Total                   33.824              8.450             52.496
 Electronic               0.000              0.000              0.000
 Translational            0.889              2.981             35.927
 Rotational               0.889              2.981             15.880
 Vibrational             32.047              2.489              0.689

 Optimization completed.
    -- Stationary point found.
 Normal termination of Gaussian 03 at Wed Mar 22 13:05:27 2006.
